% Model: dimensionless_oneD.mph
% Version: COMSOL 4.3.1.161
% Date: Jun 7 2013, 15:53
% Dimension: 1
% Nodes: 201
% Expressions: 1
% Description: Point graph
% x Height
0 0.9999999978491385
0.1 0.9757486501275694
0.2 0.8983981297523271
0.30000000000000004 0.8200608251365533
0.4 0.751652673024699
0.5 0.6929388430561382
0.6000000000000001 0.6424726743050901
0.7000000000000001 0.5989007807866582
0.8 0.5604049971136277
0.9 0.5266992946201228
1 0.49676468274496305
1.1 0.4703490394723365
1.2000000000000002 0.44658516429087664
1.3 0.4252436678473791
1.4000000000000001 0.40591858475465875
1.5 0.3884524573633925
1.6 0.3724883659344371
1.7000000000000002 0.3578898979243684
1.8 0.34443249514268276
1.9000000000000001 0.3320588543404089
2 0.32058880817530516
2.1 0.30987264469225173
2.2 0.2998001399715878
2.3000000000000003 0.2903693000082632
2.4000000000000004 0.28140233704876905
2.5 0.2727857715151677
2.6 0.2646232340689365
2.7 0.2570105816061163
2.8000000000000003 0.24978018259251544
2.9000000000000004 0.24288911060720306
3 0.23638018194467922
3.1 0.23021702720514922
3.2 0.22435917845270742
3.3000000000000003 0.2187836286756574
3.4000000000000004 0.21352468673661346
3.5 0.2085389472298445
3.6 0.2038100392956532
3.7 0.1993274359618656
3.8000000000000003 0.19509370602919165
3.9000000000000004 0.19109277571397257
4 0.187317068254197
4.1000000000000005 0.18374263089135456
4.2 0.18034558453799265
4.3 0.1771178481514552
4.4 0.1740431296922548
4.5 0.1710950789911963
4.6000000000000005 0.16825418417254637
4.7 0.16549947502675524
4.800000000000001 0.16281031800465856
4.9 0.16019489472974724
5 0.1576260763388372
5.1000000000000005 0.15508945748394443
5.2 0.15258527019149296
5.300000000000001 0.15013714372488818
5.4 0.14773371490823833
5.5 0.14538098441541453
5.6000000000000005 0.14309296630798182
5.7 0.14088595366923976
5.800000000000001 0.1387761520243568
5.9 0.13678500659472867
6 0.1348883771822578
6.1000000000000005 0.13309907696724058
6.2 0.13142050196637925
6.300000000000001 0.1298433279509799
6.4 0.1283238567196764
6.5 0.12685714960619407
6.6000000000000005 0.1254183187584675
6.7 0.12400438625348884
6.800000000000001 0.12263961470400311
6.9 0.12129152753765907
7 0.11995109539919195
7.1000000000000005 0.11864883616267033
7.2 0.1173704295207031
7.300000000000001 0.11611587547329018
7.4 0.11488871393518885
7.5 0.11368913236395105
7.6000000000000005 0.11251593348995557
7.7 0.11136951264859624
7.800000000000001 0.11025072851485572
7.9 0.10915898471678213
8 0.10809428125437547
8.1 0.10704911145021574
8.200000000000001 0.10602714090424294
8.3 0.10502860093971472
8.4 0.10405349155663106
8.5 0.10310181275499197
8.6 0.10217356453479744
8.700000000000001 0.10126642277219458
8.8 0.1003732829921518
8.9 0.09950070525880607
9 0.09864868957215736
9.1 0.09781723593220568
9.200000000000001 0.09700634433895101
9.3 0.09621601479239342
9.4 0.09543587120661955
9.5 0.09466180091686392
9.600000000000001 0.09390260072791888
9.700000000000001 0.09315827063978444
9.8 0.0924288106524606
9.9 0.09171422076594737
10 0.09101450098024473
10.100000000000001 0.09032965129535267
10.200000000000001 0.08965967171127122
10.3 0.08900456222800039
10.4 0.08836432284554015
10.5 0.08773895356389048
10.600000000000001 0.08712845438305143
10.700000000000001 0.08653194747050694
10.8 0.08593093142429213
10.9 0.08534200115003206
11 0.08476515664772673
11.100000000000001 0.08420039791737613
11.200000000000001 0.08364772495898028
11.3 0.08310713777253918
11.4 0.08257863635805282
11.5 0.0820622207155212
11.600000000000001 0.08155789084494432
11.700000000000001 0.08106564674632219
11.8 0.0805854884196548
11.9 0.08011741586494214
12 0.07966142908218424
12.100000000000001 0.07920407879043607
12.200000000000001 0.07874685921041308
12.3 0.07829847593472038
12.4 0.07785892896335794
12.5 0.0774282182963258
12.600000000000001 0.07700634393362395
12.700000000000001 0.07659330587525237
12.8 0.07618910412121109
12.9 0.07579373867150009
13 0.07540720952611937
13.100000000000001 0.07502951668506894
13.200000000000001 0.0746606601483488
13.3 0.07430063991595895
13.4 0.0739473369521471
13.5 0.07358758879715195
13.600000000000001 0.0732343129417545
13.700000000000001 0.07288750938595477
13.8 0.07254717812975273
13.9 0.07221331917314838
14 0.07188593251614174
14.100000000000001 0.07156501815873278
14.200000000000001 0.07125057610092153
14.3 0.07094260634270799
14.4 0.07064110888409214
14.5 0.07034608372507399
14.600000000000001 0.07005753086565353
14.700000000000001 0.06977545030583078
14.8 0.06949509883464645
14.9 0.06921764087324613
15 0.068945017758375
15.100000000000001 0.06867712127820824
15.200000000000001 0.06841384322092109
15.3 0.06815507537468869
15.4 0.06790070952768625
15.5 0.06765063746808893
15.600000000000001 0.06740475098407193
15.700000000000001 0.06716294186381046
15.8 0.06692510189547966
15.9 0.06669112286725473
16 0.06646089656731087
16.1 0.06623449570585901
16.2 0.06601239764538389
16.3 0.06579392539585428
16.400000000000002 0.06557898421899598
16.5 0.06536747937653471
16.6 0.06515931613019618
16.7 0.06495439974170611
16.8 0.06475263547279028
16.900000000000002 0.06455392858517438
17 0.06435818434058416
17.1 0.06416530800074534
17.2 0.06397520482738366
17.3 0.06378778008222487
17.400000000000002 0.06360293902699464
17.5 0.06342205399280945
17.6 0.06324439747330704
17.7 0.06306948851431515
17.8 0.06289726182363148
17.900000000000002 0.06272765210905369
18 0.06256059407837945
18.1 0.06239602243940639
18.2 0.06223387189993221
18.3 0.06207407716775456
18.400000000000002 0.061916572950671094
18.5 0.061761293956479495
18.6 0.06160817489297741
18.7 0.06145715046796252
18.8 0.06130815538923246
18.900000000000002 0.06116112436458492
19 0.061015992101817566
19.1 0.060872693308728035
19.200000000000003 0.06073116269311401
19.3 0.06059133496277315
19.400000000000002 0.060453144825503125
19.5 0.06031806950434084
19.6 0.0601852704633651
19.700000000000003 0.06005424889274663
19.8 0.059924956649047435
19.900000000000002 0.059797345588829515
20 0.059671367568654876
